 Gaussian 16, Revision A.03,
 Gaussian 16:  ES64L-G16RevA.03 25-Dec-2016

 ----------------------------------------------------------------------
 #p td(nstate=6) pbe1pbe/6-311+G(d,p) nosymm eet=fragment=3 scrf(iefpcm
 ,solvent=Chloroform)
 ----------------------------------------------------------------------

 ---
 opt
 ---
 Symbolic Z-matrix:
 Charge =  0 Multiplicity = 1 in supermolecule
 Charge =  0 Multiplicity = 1 in fragment      1.
 Charge =  0 Multiplicity = 1 in fragment      2.
 Charge =  0 Multiplicity = 1 in fragment      3.

                          Input orientation:
 ---------------------------------------------------------------------
 Center     Atomic      Atomic             Coordinates (Angstroms)
 Number     Number       Type             X           Y           Z
 ---------------------------------------------------------------------
      1          6           0        1.548264   10.553765    1.790179
      2          5           0        1.137124   13.009662    3.471666
      3          7           0        1.935066   12.929675    2.103412
      4          6           0        2.447627   13.941510    1.362125
      5          6           0        2.070961   11.756410    1.348974
      6          6           0        2.953385   13.426177    0.148865
      7          6           0        2.724297   12.059723    0.123812
      8          1           0        3.425374   14.020429   -0.621478
      9          7           0        0.768787   11.519047    3.876844
     10          6           0        0.907450   10.425426    3.009811
     11          6           0        0.262113   11.040840    5.041802
     12          6           0        0.435038    9.250829    3.654471
     13          6           0        0.040276    9.651392    4.920309
     14          1           0       -0.358670    9.024102    5.705577
     15          6           0        3.077337   11.090716   -0.961533
     16          1           0        3.812609   10.354046   -0.622814
     17          1           0        2.202918   10.534484   -1.312345
     18          1           0        3.503809   11.611177   -1.820489
     19          6           0        2.450268   15.381578    1.747006
     20          1           0        2.685205   15.992677    0.874508
     21          1           0        1.483230   15.690306    2.144143
     22          1           0        3.197762   15.595278    2.514938
     23          6           0        0.411855    7.868284    3.080505
     24          1           0       -0.163106    7.823930    2.150769
     25          1           0        1.419459    7.506199    2.853296
     26          1           0       -0.039365    7.165599    3.782776
     27          6           0       -0.009705   11.831399    6.278192
     28          1           0        0.786559   12.544118    6.483568
     29          1           0       -0.942045   12.395887    6.200232
     30          1           0       -0.107444   11.151354    7.126057
     31          1           0        1.657787    9.675670    1.163613
     32          8           0       -0.018989   13.840030    3.143103
     33          8           0        1.925618   13.510194    4.595523
     34          6           0        2.034487   14.820578    4.932168
     35          6           0        0.935610   15.651874    5.131653
     36          6           0        3.355693   15.298022    5.136313
     37          6           0        1.180128   17.061641    5.310596
     38          6           0       -0.446913   15.094779    5.143806
     39          6           0        3.592501   16.612373    5.430491
     40          1           0        4.165807   14.582681    5.043634
     41          6           0        0.138548   18.030137    5.278792
     42          6           0        2.520045   17.540430    5.480910
     43          6           0       -1.361781   15.353655    6.226578
     44          6           0       -0.867990   14.252845    4.122040
     45          1           0        4.606909   16.964820    5.591639
     46          6           0        0.398644   19.370913    5.444545
     47          1           0       -0.878965   17.704851    5.104555
     48          6           0        2.753012   18.926876    5.673256
     49          6           0       -0.971074   16.008082    7.428324
     50          6           0       -2.716294   14.890254    6.139270
     51          6           0       -2.210926   13.810069    4.034574
     52          6           0        1.717001   19.829229    5.661106
     53          1           0       -0.418467   20.084241    5.402898
     54          1           0        3.775358   19.265571    5.815389
     55          6           0       -1.865892   16.232005    8.448690
     56          1           0        0.056943   16.323887    7.547318
     57          6           0       -3.621008   15.158530    7.199945
     58          6           0       -3.119637   14.142966    5.002135
     59          1           0       -2.486913   13.201266    3.180579
     60          1           0        1.908262   20.888217    5.800726
     61          6           0       -3.212327   15.820848    8.331593
     62          1           0       -1.531414   16.725429    9.355807
     63          1           0       -4.646563   14.813115    7.105424
     64          1           0       -4.149859   13.808067    4.927014
     65          1           0       -3.911448   16.013518    9.138840
 ---------------------------------------------------------------------

 SCF Done:  E(RPBE1PBE) =  -789.870859008     A.U. after   14 cycles
 Total Energy, E(TD-HF/TD-DFT) =  -789.765395421
 SCF Done:  E(RPBE1PBE) =  -385.513780084     A.U. after   13 cycles
 Total Energy, E(TD-HF/TD-DFT) =  -385.353039353
 SCF Done:  E(RPBE1PBE) =  -385.514988607     A.U. after   13 cycles

 Excitation energies and oscillator strengths:

 Excited state symmetry could not be determined.
 Excited State   1:      Singlet-?Sym    4.3915 eV  282.33 nm  f=0.0855  <S**2>=0.000
      33 -> 36         0.14198
      34 -> 35         0.68877
 This state for optimization and/or second-order correction.
 Total Energy, E(TD-HF/TD-DFT) =  -385.353603222
 Copying the excited state density for this state as the 1-particle RhoCI density.

 Excited state symmetry could not be determined.
 Excited State   2:      Singlet-?Sym    4.5000 eV  275.52 nm  f=0.0003  <S**2>=0.000
      33 -> 35         0.50105
      34 -> 36        -0.49547

 Excited state symmetry could not be determined.
 Excited State   3:      Singlet-?Sym    5.6133 eV  220.87 nm  f=0.0142  <S**2>=0.000
      32 -> 35         0.27896
      34 -> 37         0.64079

 Excited state symmetry could not be determined.
 Excited State   4:      Singlet-?Sym    5.6842 eV  218.12 nm  f=1.3796  <S**2>=0.000
      33 -> 35         0.48333
      34 -> 36         0.49000

 Excited state symmetry could not be determined.
 Excited State   5:      Singlet-?Sym    5.8255 eV  212.83 nm  f=0.0268  <S**2>=0.000
      34 -> 38         0.68444

 Excited state symmetry could not be determined.
 Excited State   6:      Singlet-?Sym    6.0979 eV  203.32 nm  f=0.2584  <S**2>=0.000
      32 -> 37        -0.10990
      33 -> 36         0.67219
      34 -> 35        -0.12810

 Alpha  occ. eigenvalues --  -10.24865 -10.24469 -10.24002 -10.23894 -10.23373
 Alpha  occ. eigenvalues --  -10.23354 -10.23344 -10.23254 -10.23207 -10.23205
 Alpha  occ. eigenvalues --   -0.90799  -0.85378  -0.80408  -0.77050  -0.74853
 Alpha  occ. eigenvalues --   -0.65224  -0.63548  -0.62166  -0.53806  -0.52895
 Alpha  occ. eigenvalues --   -0.51600  -0.46910  -0.46085  -0.43809  -0.43638
 Alpha  occ. eigenvalues --   -0.41708  -0.41382  -0.38576  -0.35609  -0.35110
 Alpha  occ. eigenvalues --   -0.34638  -0.30599  -0.26396  -0.23605
 Alpha virt. eigenvalues --   -0.04966  -0.02055   0.00795   0.01316   0.02404
 Alpha virt. eigenvalues --    0.02556   0.04639   0.04761   0.05870   0.06038
 Alpha virt. eigenvalues --    0.06909   0.07083   0.07583   0.08265   0.08335

 Mulliken charges:
               1
     1  C    0.000000
     2  B    0.000000
     3  N    0.000000
     4  C    0.000000
     5  C    0.000000
     6  C    0.000000
     7  C    0.000000
     8  H    0.000000
     9  N    0.000000
    10  C    0.000000
    11  C    0.000000
    12  C    0.000000
    13  C    0.000000
    14  H    0.000000
    15  C    0.000000
    16  H    0.000000
    17  H    0.000000
    18  H    0.000000
    19  C    0.000000
    20  H    0.000000
    21  H    0.000000
    22  H    0.000000
    23  C    0.000000
    24  H    0.000000
    25  H    0.000000
    26  H    0.000000
    27  C    0.000000
    28  H    0.000000
    29  H    0.000000
    30  H    0.000000
    31  H    0.000000
    32  O    0.000000
    33  O    0.000000
    34  C    0.000000
    35  C    0.000000
    36  C    0.000000
    37  C    0.000000
    38  C   -0.193467
    39  C    0.000000
    40  H    0.000000
    41  C    0.000000
    42  C    0.000000
    43  C    0.026038
    44  C   -0.140117
    45  H    0.000000
    46  C    0.000000
    47  H    0.000000
    48  C    0.000000
    49  C   -0.023607
    50  C    0.148774
    51  C   -0.372565
    52  C    0.000000
    53  H    0.000000
    54  H    0.000000
    55  C   -0.284439
    56  H    0.152107
    57  C   -0.030663
    58  C   -0.025399
    59  H    0.160967
    60  H    0.000000
    61  C   -0.345936
    62  H    0.159867
    63  H    0.154681
    64  H    0.155758
    65  H    0.160862
    66  H    0.150936
    67  H    0.000000
    68  H    0.000000
    69  H    0.146203
    70  H    0.000000
    71  H    0.000000
 Sum of Mulliken charges =  -0.00000

 Dipole moment (field-independent basis, Debye):
    X=             -0.0905    Y=             -0.1876    Z=              0.0726  Tot=              0.2206
 Quadrupole moment (field-independent basis, Debye-Ang):
   XX=            -50.9772   YY=            -66.3646   ZZ=            -52.1912
   XY=              2.0686   XZ=             -2.3921   YZ=              5.7828

 Normal termination of Gaussian 16 at Tue May  9 12:19:14 2017.
